LAMMPS data file for IDP

44 atoms
43 bonds

20 atom types
1 bond types

-91.000000   91.000000  xlo xhi
-91.000000   91.000000  ylo yhi
-91.000000   91.000000  zlo zhi

Masses

   1 131.199997
   2 57.049999
   3 128.199997
   4 101.099998
   5 156.199997
   6 71.080002
   7 115.099998
   8 129.100006
   9 163.199997
   10 99.070000
   11 113.199997
   12 128.100006
   13 186.199997
   14 147.199997
   15 87.080002
   16 137.100006
   17 114.099998
   18 97.120003
   19 103.099998
   20 113.199997

Atoms

1 1 6  0.000000 6.000000  0.000000  0.000000
2 1 19  0.000000 12.000000  0.000000  0.000000
3 1 8  -0.750000 18.000000  0.000000  0.000000
4 1 4  0.000000 24.000000  0.000000  0.000000
5 1 17  0.000000 30.000000  0.000000  0.000000
6 1 3  0.750000 36.000000  0.000000  0.000000
7 1 5  0.750000 42.000000  0.000000  0.000000
8 1 3  0.750000 48.000000  0.000000  0.000000
9 1 5  0.750000 54.000000  0.000000  0.000000
10 1 8  -0.750000 60.000000  0.000000  0.000000
11 1 12  0.000000 66.000000  0.000000  0.000000
12 1 20  0.000000 72.000000  0.000000  0.000000
13 1 15  0.000000 78.000000  0.000000  0.000000
14 1 4  0.000000 84.000000  0.000000  0.000000
15 1 7  -0.750000 90.000000  0.000000  0.000000
16 1 17  0.000000 90.000000  6.000000  0.000000
17 1 8  -0.750000 90.000000  12.000000  0.000000
18 1 6  0.000000 90.000000  18.000000  0.000000
19 1 3  0.750000 90.000000  24.000000  0.000000
20 1 1  0.000000 90.000000  30.000000  0.000000
21 1 12  0.000000 90.000000  36.000000  0.000000
22 1 20  0.000000 90.000000  42.000000  0.000000
23 1 12  0.000000 90.000000  48.000000  0.000000
24 1 8  -0.750000 90.000000  54.000000  0.000000
25 1 8  -0.750000 90.000000  60.000000  0.000000
26 1 3  0.750000 90.000000  66.000000  0.000000
27 1 15  0.000000 90.000000  72.000000  0.000000
28 1 18  0.000000 90.000000  78.000000  0.000000
29 1 3  0.750000 90.000000  84.000000  0.000000
30 1 3  0.750000 90.000000  90.000000  0.000000
31 1 3  0.750000 90.000000  90.000000  6.000000
32 1 5  0.750000 90.000000  90.000000  12.000000
33 1 3  0.750000 90.000000  90.000000  18.000000
34 1 3  0.750000 90.000000  90.000000  24.000000
35 1 5  0.750000 90.000000  90.000000  30.000000
36 1 15  0.000000 90.000000  90.000000  36.000000
37 1 15  0.000000 90.000000  90.000000  42.000000
38 1 3  0.750000 90.000000  90.000000  48.000000
39 1 6  0.000000 90.000000  90.000000  54.000000
40 1 17  0.000000 90.000000  90.000000  60.000000
41 1 3  0.750000 90.000000  90.000000  66.000000
42 1 18  0.000000 90.000000  90.000000  72.000000
43 1 18  0.000000 90.000000  90.000000  78.000000
44 1 8  -0.750000 90.000000  90.000000  84.000000

Bonds

1 1 1 2
2 1 2 3
3 1 3 4
4 1 4 5
5 1 5 6
6 1 6 7
7 1 7 8
8 1 8 9
9 1 9 10
10 1 10 11
11 1 11 12
12 1 12 13
13 1 13 14
14 1 14 15
15 1 15 16
16 1 16 17
17 1 17 18
18 1 18 19
19 1 19 20
20 1 20 21
21 1 21 22
22 1 22 23
23 1 23 24
24 1 24 25
25 1 25 26
26 1 26 27
27 1 27 28
28 1 28 29
29 1 29 30
30 1 30 31
31 1 31 32
32 1 32 33
33 1 33 34
34 1 34 35
35 1 35 36
36 1 36 37
37 1 37 38
38 1 38 39
39 1 39 40
40 1 40 41
41 1 41 42
42 1 42 43
43 1 43 44
